<?xml version="1.0" encoding="UTF-8"?>

<!-- generated on 2025-04-12 11:56:09 by Eclipse SUMO sumo Version 1.12.0
<configuration xmlns:xsi="http://www.w3.org/2001/XMLSchema-instance" xsi:noNamespaceSchemaLocation="http://sumo.dlr.de/xsd/sumoConfiguration.xsd">

    <input>
        <net-file value="large_grid/data/exp_6by6.net.xml"/>
        <route-files value="large_grid/data/exp_6by6.rou.xml"/>
        <additional-files value="large_grid/data/exp_6by6.add.xml"/>
    </input>

    <processing>
        <time-to-teleport value="600"/>
    </processing>

    <report>
        <no-warnings value="true"/>
        <duration-log.disable value="true"/>
        <no-step-log value="true"/>
    </report>

    <traci_server>
        <remote-port value="8813"/>
    </traci_server>

    <random_number>
        <seed value="12"/>
    </random_number>

</configuration>
-->

<detector xmlns:xsi="http://www.w3.org/2001/XMLSchema-instance" xsi:noNamespaceSchemaLocation="http://sumo.dlr.de/xsd/det_e2_file.xsd">
</detector>
